# vtk DataFile Version 3.0
triangle
ASCII
DATASET UNSTRUCTURED_GRID
POINTS  15  float
0.000000 1.000000 0.0
0.000000 0.500000 0.0
0.000000 0.000000 0.0
0.500000 1.000000 0.0
0.500000 0.500000 0.0
0.500000 0.000000 0.0
1.000000 1.000000 0.0
1.000000 0.500000 0.0
1.000000 0.000000 0.0
1.500000 1.000000 0.0
1.500000 0.500000 0.0
1.500000 0.000000 0.0
2.000000 1.000000 0.0
2.000000 0.500000 0.0
2.000000 0.000000 0.0
CELLS 16  64
3  0  4  3
3  0  1  4
3  1  2  4
3  2  5  4
3  3  7  6
3  3  4  7
3  4  5  7
3  7  5  8
3  6  10  9
3  6  7  10
3  7  8  10
3  8  11  10
3  9  13  12
3  9  10  13
3  10  11  13
3  13  11  14
CELL_TYPES 16
5
5
5
5
5
5
5
5
5
5
5
5
5
5
5
5
POINT_DATA 15
SCALARS  cc2  float
LOOKUP_TABLE default
1.000000
1.000000
1.000000
0.763077
0.868706
0.763077
0.506778
0.638206
0.506778
0.215890
0.359638
0.215890
0.000000
0.000000
0.000000
